MODEL 1
REMARK VINA RESULT:      -7.3      0.000      0.000
REMARK  5 active torsions:
REMARK  status: ('A' for Active; 'I' for Inactive)
REMARK    1  A    between atoms: O1_1  and  C15_15 
REMARK    2  A    between atoms: C3_3  and  C4_4 
REMARK    3  A    between atoms: C4_4  and  C5_5 
REMARK    4  A    between atoms: C6_6  and  C7_7 
REMARK    5  A    between atoms: C7_7  and  C15_15 
ROOT
HETATM    1  O1          0      32.187 -19.335 -17.283  1.00  0.00    -0.776 OA
HETATM    2  H33         0      31.565 -19.374 -16.525  1.00  0.00     0.167 HD
ENDROOT
BRANCH   1   3
HETATM    3  C15         0      32.494 -20.575 -17.750  1.00  0.00     0.148 C 
HETATM    4  O2          0      33.614 -20.869 -18.147  1.00  0.00    -0.649 OA
BRANCH   3   5
HETATM    5  C7          0      31.307 -21.543 -17.712  1.00  0.00     0.112 C 
HETATM    6  C14         0      30.016 -20.731 -17.944  1.00  0.00     0.026 C 
BRANCH   5   7
HETATM    7  C6          0      31.282 -22.379 -16.477  1.00  0.00    -0.044 A 
HETATM    8  C12         0      30.072 -22.630 -15.828  1.00  0.00     0.008 A 
HETATM    9  C10         0      30.049 -23.411 -14.673  1.00  0.00     0.007 A 
HETATM   10  C5          0      31.236 -23.930 -14.180  1.00  0.00    -0.058 A 
HETATM   11  C11         0      32.445 -23.690 -14.814  1.00  0.00     0.007 A 
HETATM   12  C13         0      32.468 -22.909 -15.970  1.00  0.00     0.008 A 
BRANCH  10  13
HETATM   13  C4          0      31.210 -24.776 -12.930  1.00  0.00     0.042 C 
BRANCH  13  14
HETATM   14  C3          0      32.583 -25.360 -12.546  1.00  0.00    -0.019 C 
HETATM   15  C8          0      32.759 -25.463 -11.029  1.00  0.00     0.010 C 
HETATM   16  C9          0      32.754 -26.743 -13.180  1.00  0.00     0.010 C 
ENDBRANCH  13  14
ENDBRANCH  10  13
ENDBRANCH   5   7
ENDBRANCH   3   5
ENDBRANCH   1   3
TORSDOF 5
ENDMDL
MODEL 2
REMARK VINA RESULT:      -7.3      0.034      1.248
REMARK  5 active torsions:
REMARK  status: ('A' for Active; 'I' for Inactive)
REMARK    1  A    between atoms: O1_1  and  C15_15 
REMARK    2  A    between atoms: C3_3  and  C4_4 
REMARK    3  A    between atoms: C4_4  and  C5_5 
REMARK    4  A    between atoms: C6_6  and  C7_7 
REMARK    5  A    between atoms: C7_7  and  C15_15 
ROOT
HETATM    1  O1          0      32.191 -19.335 -17.328  1.00  0.00    -0.776 OA
HETATM    2  H33         0      32.797 -18.667 -17.715  1.00  0.00     0.167 HD
ENDROOT
BRANCH   1   3
HETATM    3  C15         0      32.493 -20.594 -17.744  1.00  0.00     0.148 C 
HETATM    4  O2          0      33.616 -20.913 -18.111  1.00  0.00    -0.649 OA
BRANCH   3   5
HETATM    5  C7          0      31.296 -21.548 -17.690  1.00  0.00     0.112 C 
HETATM    6  C14         0      30.011 -20.721 -17.905  1.00  0.00     0.026 C 
BRANCH   5   7
HETATM    7  C6          0      31.277 -22.383 -16.454  1.00  0.00    -0.044 A 
HETATM    8  C12         0      32.464 -22.923 -15.958  1.00  0.00     0.008 A 
HETATM    9  C10         0      32.447 -23.704 -14.803  1.00  0.00     0.007 A 
HETATM   10  C5          0      31.241 -23.936 -14.158  1.00  0.00    -0.058 A 
HETATM   11  C11         0      30.054 -23.407 -14.638  1.00  0.00     0.007 A 
HETATM   12  C13         0      30.072 -22.625 -15.794  1.00  0.00     0.008 A 
BRANCH  10  13
HETATM   13  C4          0      31.222 -24.781 -12.907  1.00  0.00     0.042 C 
BRANCH  13  14
HETATM   14  C3          0      32.591 -25.387 -12.544  1.00  0.00    -0.019 C 
HETATM   15  C8          0      32.782 -25.508 -11.031  1.00  0.00     0.010 C 
HETATM   16  C9          0      32.737 -26.765 -13.194  1.00  0.00     0.010 C 
ENDBRANCH  13  14
ENDBRANCH  10  13
ENDBRANCH   5   7
ENDBRANCH   3   5
ENDBRANCH   1   3
TORSDOF 5
ENDMDL
MODEL 3
REMARK VINA RESULT:      -7.3      3.297      6.243
REMARK  5 active torsions:
REMARK  status: ('A' for Active; 'I' for Inactive)
REMARK    1  A    between atoms: O1_1  and  C15_15 
REMARK    2  A    between atoms: C3_3  and  C4_4 
REMARK    3  A    between atoms: C4_4  and  C5_5 
REMARK    4  A    between atoms: C6_6  and  C7_7 
REMARK    5  A    between atoms: C7_7  and  C15_15 
ROOT
HETATM    1  O1          0      34.625 -27.458 -12.695  1.00  0.00    -0.776 OA
HETATM    2  H33         0      35.277 -26.783 -12.408  1.00  0.00     0.167 HD
ENDROOT
BRANCH   1   3
HETATM    3  C15         0      33.415 -26.904 -12.978  1.00  0.00     0.148 C 
HETATM    4  O2          0      32.520 -27.528 -13.530  1.00  0.00    -0.649 OA
BRANCH   3   5
HETATM    5  C7          0      33.302 -25.444 -12.527  1.00  0.00     0.112 C 
HETATM    6  C14         0      32.501 -25.409 -11.209  1.00  0.00     0.026 C 
BRANCH   5   7
HETATM    7  C6          0      32.758 -24.551 -13.589  1.00  0.00    -0.044 A 
HETATM    8  C12         0      31.542 -23.894 -13.395  1.00  0.00     0.008 A 
HETATM    9  C10         0      31.032 -23.059 -14.388  1.00  0.00     0.007 A 
HETATM   10  C5          0      31.745 -22.892 -15.566  1.00  0.00    -0.058 A 
HETATM   11  C11         0      32.954 -23.538 -15.774  1.00  0.00     0.007 A 
HETATM   12  C13         0      33.463 -24.372 -14.779  1.00  0.00     0.008 A 
BRANCH  10  13
HETATM   13  C4          0      31.194 -21.988 -16.642  1.00  0.00     0.042 C 
BRANCH  13  14
HETATM   14  C3          0      32.278 -21.266 -17.464  1.00  0.00    -0.019 C 
HETATM   15  C8          0      32.204 -21.624 -18.950  1.00  0.00     0.010 C 
HETATM   16  C9          0      32.139 -19.752 -17.291  1.00  0.00     0.010 C 
ENDBRANCH  13  14
ENDBRANCH  10  13
ENDBRANCH   5   7
ENDBRANCH   3   5
ENDBRANCH   1   3
TORSDOF 5
ENDMDL
MODEL 4
REMARK VINA RESULT:      -7.0      3.108      6.095
REMARK  5 active torsions:
REMARK  status: ('A' for Active; 'I' for Inactive)
REMARK    1  A    between atoms: O1_1  and  C15_15 
REMARK    2  A    between atoms: C3_3  and  C4_4 
REMARK    3  A    between atoms: C4_4  and  C5_5 
REMARK    4  A    between atoms: C6_6  and  C7_7 
REMARK    5  A    between atoms: C7_7  and  C15_15 
ROOT
HETATM    1  O1          0      33.018 -25.079 -10.690  1.00  0.00    -0.776 OA
HETATM    2  H33         0      32.769 -25.238  -9.754  1.00  0.00     0.167 HD
ENDROOT
BRANCH   1   3
HETATM    3  C15         0      31.935 -24.787 -11.460  1.00  0.00     0.148 C 
HETATM    4  O2          0      31.040 -24.045 -11.080  1.00  0.00    -0.649 OA
BRANCH   3   5
HETATM    5  C7          0      31.970 -25.471 -12.830  1.00  0.00     0.112 C 
HETATM    6  C14         0      33.262 -26.310 -12.917  1.00  0.00     0.026 C 
BRANCH   5   7
HETATM    7  C6          0      31.795 -24.513 -13.959  1.00  0.00    -0.044 A 
HETATM    8  C12         0      30.546 -23.941 -14.203  1.00  0.00     0.008 A 
HETATM    9  C10         0      30.382 -23.045 -15.259  1.00  0.00     0.007 A 
HETATM   10  C5          0      31.470 -22.733 -16.059  1.00  0.00    -0.058 A 
HETATM   11  C11         0      32.717 -23.293 -15.830  1.00  0.00     0.007 A 
HETATM   12  C13         0      32.880 -24.188 -14.773  1.00  0.00     0.008 A 
BRANCH  10  13
HETATM   13  C4          0      31.293 -21.763 -17.202  1.00  0.00     0.042 C 
BRANCH  13  14
HETATM   14  C3          0      32.565 -20.963 -17.542  1.00  0.00    -0.019 C 
HETATM   15  C8          0      33.056 -21.243 -18.964  1.00  0.00     0.010 C 
HETATM   16  C9          0      32.296 -19.465 -17.375  1.00  0.00     0.010 C 
ENDBRANCH  13  14
ENDBRANCH  10  13
ENDBRANCH   5   7
ENDBRANCH   3   5
ENDBRANCH   1   3
TORSDOF 5
ENDMDL
MODEL 5
REMARK VINA RESULT:      -6.5      1.555      2.205
REMARK  5 active torsions:
REMARK  status: ('A' for Active; 'I' for Inactive)
REMARK    1  A    between atoms: O1_1  and  C15_15 
REMARK    2  A    between atoms: C3_3  and  C4_4 
REMARK    3  A    between atoms: C4_4  and  C5_5 
REMARK    4  A    between atoms: C6_6  and  C7_7 
REMARK    5  A    between atoms: C7_7  and  C15_15 
ROOT
HETATM    1  O1          0      32.981 -19.673 -18.417  1.00  0.00    -0.776 OA
HETATM    2  H33         0      32.517 -19.464 -17.578  1.00  0.00     0.167 HD
ENDROOT
BRANCH   1   3
HETATM    3  C15         0      33.081 -21.014 -18.619  1.00  0.00     0.148 C 
HETATM    4  O2          0      32.353 -21.617 -19.396  1.00  0.00    -0.649 OA
BRANCH   3   5
HETATM    5  C7          0      34.191 -21.666 -17.789  1.00  0.00     0.112 C 
HETATM    6  C14         0      35.173 -22.358 -18.757  1.00  0.00     0.026 C 
BRANCH   5   7
HETATM    7  C6          0      33.663 -22.563 -16.721  1.00  0.00    -0.044 A 
HETATM    8  C12         0      32.332 -22.460 -16.317  1.00  0.00     0.008 A 
HETATM    9  C10         0      31.838 -23.297 -15.317  1.00  0.00     0.007 A 
HETATM   10  C5          0      32.683 -24.228 -14.733  1.00  0.00    -0.058 A 
HETATM   11  C11         0      34.008 -24.343 -15.124  1.00  0.00     0.007 A 
HETATM   12  C13         0      34.501 -23.505 -16.124  1.00  0.00     0.008 A 
BRANCH  10  13
HETATM   13  C4          0      32.149 -25.136 -13.652  1.00  0.00     0.042 C 
BRANCH  13  14
HETATM   14  C3          0      33.231 -25.662 -12.690  1.00  0.00    -0.019 C 
HETATM   15  C8          0      32.797 -25.559 -11.226  1.00  0.00     0.010 C 
HETATM   16  C9          0      33.562 -27.118 -13.029  1.00  0.00     0.010 C 
ENDBRANCH  13  14
ENDBRANCH  10  13
ENDBRANCH   5   7
ENDBRANCH   3   5
ENDBRANCH   1   3
TORSDOF 5
ENDMDL
MODEL 6
REMARK VINA RESULT:      -6.5      2.858      6.070
REMARK  5 active torsions:
REMARK  status: ('A' for Active; 'I' for Inactive)
REMARK    1  A    between atoms: O1_1  and  C15_15 
REMARK    2  A    between atoms: C3_3  and  C4_4 
REMARK    3  A    between atoms: C4_4  and  C5_5 
REMARK    4  A    between atoms: C6_6  and  C7_7 
REMARK    5  A    between atoms: C7_7  and  C15_15 
ROOT
HETATM    1  O1          0      31.445 -22.527 -12.803  1.00  0.00    -0.776 OA
HETATM    2  H33         0      31.012 -22.874 -11.994  1.00  0.00     0.167 HD
ENDROOT
BRANCH   1   3
HETATM    3  C15         0      30.978 -23.133 -13.928  1.00  0.00     0.148 C 
HETATM    4  O2          0      29.871 -22.894 -14.392  1.00  0.00    -0.649 OA
BRANCH   3   5
HETATM    5  C7          0      31.978 -24.120 -14.538  1.00  0.00     0.112 C 
HETATM    6  C14         0      32.762 -24.784 -13.387  1.00  0.00     0.026 C 
BRANCH   5   7
HETATM    7  C6          0      32.846 -23.495 -15.578  1.00  0.00    -0.044 A 
HETATM    8  C12         0      32.316 -22.541 -16.448  1.00  0.00     0.008 A 
HETATM    9  C10         0      33.127 -21.957 -17.421  1.00  0.00     0.007 A 
HETATM   10  C5          0      34.458 -22.335 -17.512  1.00  0.00    -0.058 A 
HETATM   11  C11         0      34.998 -23.281 -16.655  1.00  0.00     0.007 A 
HETATM   12  C13         0      34.187 -23.864 -15.682  1.00  0.00     0.008 A 
BRANCH  10  13
HETATM   13  C4          0      35.336 -21.703 -18.565  1.00  0.00     0.042 C 
BRANCH  13  14
HETATM   14  C3          0      34.591 -20.720 -19.488  1.00  0.00    -0.019 C 
HETATM   15  C8          0      34.563 -19.302 -18.913  1.00  0.00     0.010 C 
HETATM   16  C9          0      35.252 -20.704 -20.869  1.00  0.00     0.010 C 
ENDBRANCH  13  14
ENDBRANCH  10  13
ENDBRANCH   5   7
ENDBRANCH   3   5
ENDBRANCH   1   3
TORSDOF 5
ENDMDL
MODEL 7
REMARK VINA RESULT:      -6.4      3.096      6.062
REMARK  5 active torsions:
REMARK  status: ('A' for Active; 'I' for Inactive)
REMARK    1  A    between atoms: O1_1  and  C15_15 
REMARK    2  A    between atoms: C3_3  and  C4_4 
REMARK    3  A    between atoms: C4_4  and  C5_5 
REMARK    4  A    between atoms: C6_6  and  C7_7 
REMARK    5  A    between atoms: C7_7  and  C15_15 
ROOT
HETATM    1  O1          0      31.743 -24.781 -11.259  1.00  0.00    -0.776 OA
HETATM    2  H33         0      32.213 -24.220 -10.605  1.00  0.00     0.167 HD
ENDROOT
BRANCH   1   3
HETATM    3  C15         0      31.541 -24.127 -12.434  1.00  0.00     0.148 C 
HETATM    4  O2          0      31.174 -22.961 -12.482  1.00  0.00    -0.649 OA
BRANCH   3   5
HETATM    5  C7          0      31.828 -24.995 -13.663  1.00  0.00     0.112 C 
HETATM    6  C14         0      32.484 -26.307 -13.183  1.00  0.00     0.026 C 
BRANCH   5   7
HETATM    7  C6          0      32.611 -24.276 -14.709  1.00  0.00    -0.044 A 
HETATM    8  C12         0      31.973 -23.374 -15.562  1.00  0.00     0.008 A 
HETATM    9  C10         0      32.704 -22.702 -16.541  1.00  0.00     0.007 A 
HETATM   10  C5          0      34.066 -22.940 -16.655  1.00  0.00    -0.058 A 
HETATM   11  C11         0      34.713 -23.833 -15.815  1.00  0.00     0.007 A 
HETATM   12  C13         0      33.981 -24.505 -14.836  1.00  0.00     0.008 A 
BRANCH  10  13
HETATM   13  C4          0      34.858 -22.212 -17.713  1.00  0.00     0.042 C 
BRANCH  13  14
HETATM   14  C3          0      34.010 -21.267 -18.586  1.00  0.00    -0.019 C 
HETATM   15  C8          0      34.180 -19.802 -18.178  1.00  0.00     0.010 C 
HETATM   16  C9          0      34.390 -21.440 -20.058  1.00  0.00     0.010 C 
ENDBRANCH  13  14
ENDBRANCH  10  13
ENDBRANCH   5   7
ENDBRANCH   3   5
ENDBRANCH   1   3
TORSDOF 5
ENDMDL
MODEL 8
REMARK VINA RESULT:      -6.3      3.081      5.867
REMARK  5 active torsions:
REMARK  status: ('A' for Active; 'I' for Inactive)
REMARK    1  A    between atoms: O1_1  and  C15_15 
REMARK    2  A    between atoms: C3_3  and  C4_4 
REMARK    3  A    between atoms: C4_4  and  C5_5 
REMARK    4  A    between atoms: C6_6  and  C7_7 
REMARK    5  A    between atoms: C7_7  and  C15_15 
ROOT
HETATM    1  O1          0      31.705 -22.585 -13.114  1.00  0.00    -0.776 OA
HETATM    2  H33         0      31.030 -22.613 -12.402  1.00  0.00     0.167 HD
ENDROOT
BRANCH   1   3
HETATM    3  C15         0      32.069 -23.833 -13.516  1.00  0.00     0.148 C 
HETATM    4  O2          0      32.379 -24.713 -12.725  1.00  0.00    -0.649 OA
BRANCH   3   5
HETATM    5  C7          0      32.034 -24.008 -15.038  1.00  0.00     0.112 C 
HETATM    6  C14         0      33.454 -23.752 -15.584  1.00  0.00     0.026 C 
BRANCH   5   7
HETATM    7  C6          0      30.977 -23.183 -15.691  1.00  0.00    -0.044 A 
HETATM    8  C12         0      29.649 -23.296 -15.279  1.00  0.00     0.008 A 
HETATM    9  C10         0      28.660 -22.525 -15.890  1.00  0.00     0.007 A 
HETATM   10  C5          0      29.013 -21.650 -16.907  1.00  0.00    -0.058 A 
HETATM   11  C11         0      30.328 -21.527 -17.327  1.00  0.00     0.007 A 
HETATM   12  C13         0      31.317 -22.298 -16.714  1.00  0.00     0.008 A 
BRANCH  10  13
HETATM   13  C4          0      27.944 -20.815 -17.568  1.00  0.00     0.042 C 
BRANCH  13  14
HETATM   14  C3          0      26.531 -21.051 -17.002  1.00  0.00    -0.019 C 
HETATM   15  C8          0      25.690 -19.772 -17.004  1.00  0.00     0.010 C 
HETATM   16  C9          0      25.820 -22.136 -17.816  1.00  0.00     0.010 C 
ENDBRANCH  13  14
ENDBRANCH  10  13
ENDBRANCH   5   7
ENDBRANCH   3   5
ENDBRANCH   1   3
TORSDOF 5
ENDMDL
MODEL 9
REMARK VINA RESULT:      -6.2      1.242      2.149
REMARK  5 active torsions:
REMARK  status: ('A' for Active; 'I' for Inactive)
REMARK    1  A    between atoms: O1_1  and  C15_15 
REMARK    2  A    between atoms: C3_3  and  C4_4 
REMARK    3  A    between atoms: C4_4  and  C5_5 
REMARK    4  A    between atoms: C6_6  and  C7_7 
REMARK    5  A    between atoms: C7_7  and  C15_15 
ROOT
HETATM    1  O1          0      31.354 -21.825 -19.293  1.00  0.00    -0.776 OA
HETATM    2  H33         0      32.153 -22.394 -19.260  1.00  0.00     0.167 HD
ENDROOT
BRANCH   1   3
HETATM    3  C15         0      31.152 -21.169 -18.119  1.00  0.00     0.148 C 
HETATM    4  O2          0      30.109 -20.581 -17.866  1.00  0.00    -0.649 OA
BRANCH   3   5
HETATM    5  C7          0      32.349 -21.259 -17.166  1.00  0.00     0.112 C 
HETATM    6  C14         0      33.627 -21.425 -18.014  1.00  0.00     0.026 C 
BRANCH   5   7
HETATM    7  C6          0      32.177 -22.307 -16.120  1.00  0.00    -0.044 A 
HETATM    8  C12         0      33.139 -23.306 -15.967  1.00  0.00     0.008 A 
HETATM    9  C10         0      32.979 -24.287 -14.989  1.00  0.00     0.007 A 
HETATM   10  C5          0      31.857 -24.257 -14.175  1.00  0.00    -0.058 A 
HETATM   11  C11         0      30.892 -23.271 -14.314  1.00  0.00     0.007 A 
HETATM   12  C13         0      31.054 -22.290 -15.293  1.00  0.00     0.008 A 
BRANCH  10  13
HETATM   13  C4          0      31.683 -25.318 -13.115  1.00  0.00     0.042 C 
BRANCH  13  14
HETATM   14  C3          0      32.907 -25.486 -12.196  1.00  0.00    -0.019 C 
HETATM   15  C8          0      32.515 -25.515 -10.717  1.00  0.00     0.010 C 
HETATM   16  C9          0      33.654 -26.772 -12.557  1.00  0.00     0.010 C 
ENDBRANCH  13  14
ENDBRANCH  10  13
ENDBRANCH   5   7
ENDBRANCH   3   5
ENDBRANCH   1   3
TORSDOF 5
ENDMDL
