MODEL 1
REMARK VINA RESULT:      -8.4      0.000      0.000
REMARK  3 active torsions:
REMARK  status: ('A' for Active; 'I' for Inactive)
REMARK    1  A    between atoms: S1_1  and  C10_10 
REMARK    2  A    between atoms: C6_6  and  C7_7 
REMARK    3  A    between atoms: C8_8  and  C11_11 
ROOT
HETATM    1  S1          0      26.186 -20.803 -17.315  1.00  0.00     0.171 S 
HETATM    2  O4          0      25.996 -19.399 -16.984  1.00  0.00    -0.223 OA
HETATM    3  O5          0      25.645 -21.331 -18.560  1.00  0.00    -0.223 OA
HETATM    4  C19         0      25.495 -21.776 -15.997  1.00  0.00     0.167 C 
ENDROOT
BRANCH   1   5
HETATM    5  C10         0      27.898 -21.143 -17.254  1.00  0.00     0.058 A 
HETATM    6  C15         0      28.362 -22.268 -16.573  1.00  0.00     0.024 A 
HETATM    7  C12         0      29.729 -22.541 -16.524  1.00  0.00     0.013 A 
HETATM    8  C7          0      30.641 -21.688 -17.155  1.00  0.00    -0.027 A 
HETATM    9  C13         0      30.170 -20.559 -17.836  1.00  0.00     0.013 A 
HETATM   10  C16         0      28.802 -20.288 -17.885  1.00  0.00     0.024 A 
BRANCH   8  11
HETATM   11  C6          0      32.082 -21.976 -17.105  1.00  0.00    -0.007 A 
HETATM   12  C9          0      32.996 -21.428 -18.136  1.00  0.00     0.219 A 
HETATM   13  O2          0      34.275 -21.959 -17.789  1.00  0.00    -0.313 OA
HETATM   14  C14         0      34.166 -22.700 -16.650  1.00  0.00     0.295 A 
HETATM   15  C8          0      32.756 -22.704 -16.206  1.00  0.00     0.059 A 
HETATM   16  O3          0      35.091 -23.262 -16.088  1.00  0.00    -0.259 OA
BRANCH  15  17
HETATM   17  C11         0      32.279 -23.387 -15.003  1.00  0.00    -0.019 A 
HETATM   18  C17         0      32.492 -24.757 -14.848  1.00  0.00     0.012 A 
HETATM   19  C20         0      32.036 -25.409 -13.702  1.00  0.00     0.001 A 
HETATM   20  C22         0      31.367 -24.691 -12.711  1.00  0.00     0.000 A 
HETATM   21  C21         0      31.154 -23.321 -12.866  1.00  0.00     0.001 A 
HETATM   22  C18         0      31.609 -22.669 -14.012  1.00  0.00     0.012 A 
ENDBRANCH  15  17
ENDBRANCH   8  11
ENDBRANCH   1   5
TORSDOF 3
ENDMDL
MODEL 2
REMARK VINA RESULT:      -7.9      2.854      6.493
REMARK  3 active torsions:
REMARK  status: ('A' for Active; 'I' for Inactive)
REMARK    1  A    between atoms: S1_1  and  C10_10 
REMARK    2  A    between atoms: C6_6  and  C7_7 
REMARK    3  A    between atoms: C8_8  and  C11_11 
ROOT
HETATM    1  S1          0      32.830 -25.692 -12.877  1.00  0.00     0.171 S 
HETATM    2  O4          0      32.441 -27.071 -13.132  1.00  0.00    -0.223 OA
HETATM    3  O5          0      34.222 -25.293 -13.033  1.00  0.00    -0.223 OA
HETATM    4  C19         0      32.359 -25.288 -11.210  1.00  0.00     0.167 C 
ENDROOT
BRANCH   1   5
HETATM    5  C10         0      31.831 -24.660 -13.871  1.00  0.00     0.058 A 
HETATM    6  C15         0      30.860 -23.851 -13.282  1.00  0.00     0.024 A 
HETATM    7  C12         0      30.062 -23.027 -14.075  1.00  0.00     0.013 A 
HETATM    8  C7          0      30.231 -23.006 -15.464  1.00  0.00    -0.027 A 
HETATM    9  C13         0      31.207 -23.820 -16.049  1.00  0.00     0.013 A 
HETATM   10  C16         0      32.005 -24.644 -15.256  1.00  0.00     0.024 A 
BRANCH   8  11
HETATM   11  C6          0      29.392 -22.135 -16.300  1.00  0.00    -0.007 A 
HETATM   12  C9          0      27.915 -22.160 -16.167  1.00  0.00     0.219 A 
HETATM   13  O2          0      27.458 -21.240 -17.160  1.00  0.00    -0.313 OA
HETATM   14  C14         0      28.530 -20.680 -17.788  1.00  0.00     0.295 A 
HETATM   15  C8          0      29.774 -21.250 -17.229  1.00  0.00     0.059 A 
HETATM   16  O3          0      28.466 -19.837 -18.667  1.00  0.00    -0.259 OA
BRANCH  15  17
HETATM   17  C11         0      31.118 -20.861 -17.658  1.00  0.00    -0.019 A 
HETATM   18  C17         0      31.795 -21.625 -18.609  1.00  0.00     0.012 A 
HETATM   19  C20         0      33.076 -21.255 -19.018  1.00  0.00     0.001 A 
HETATM   20  C22         0      33.681 -20.122 -18.475  1.00  0.00     0.000 A 
HETATM   21  C21         0      33.005 -19.358 -17.524  1.00  0.00     0.001 A 
HETATM   22  C18         0      31.723 -19.728 -17.115  1.00  0.00     0.012 A 
ENDBRANCH  15  17
ENDBRANCH   8  11
ENDBRANCH   1   5
TORSDOF 3
ENDMDL
MODEL 3
REMARK VINA RESULT:      -7.7      2.961      6.559
REMARK  3 active torsions:
REMARK  status: ('A' for Active; 'I' for Inactive)
REMARK    1  A    between atoms: S1_1  and  C10_10 
REMARK    2  A    between atoms: C6_6  and  C7_7 
REMARK    3  A    between atoms: C8_8  and  C11_11 
ROOT
HETATM    1  S1          0      33.006 -25.930 -13.202  1.00  0.00     0.171 S 
HETATM    2  O4          0      33.817 -25.132 -12.295  1.00  0.00    -0.223 OA
HETATM    3  O5          0      32.187 -27.014 -12.675  1.00  0.00    -0.223 OA
HETATM    4  C19         0      34.086 -26.644 -14.421  1.00  0.00     0.167 C 
ENDROOT
BRANCH   1   5
HETATM    5  C10         0      31.987 -24.842 -14.110  1.00  0.00     0.058 A 
HETATM    6  C15         0      32.137 -24.734 -15.493  1.00  0.00     0.024 A 
HETATM    7  C12         0      31.324 -23.865 -16.219  1.00  0.00     0.013 A 
HETATM    8  C7          0      30.353 -23.097 -15.566  1.00  0.00    -0.027 A 
HETATM    9  C13         0      30.207 -23.208 -14.179  1.00  0.00     0.013 A 
HETATM   10  C16         0      31.021 -24.078 -13.454  1.00  0.00     0.024 A 
BRANCH   8  11
HETATM   11  C6          0      29.494 -22.182 -16.332  1.00  0.00    -0.007 A 
HETATM   12  C9          0      28.023 -22.202 -16.151  1.00  0.00     0.219 A 
HETATM   13  O2          0      27.540 -21.234 -17.084  1.00  0.00    -0.313 OA
HETATM   14  C14         0      28.596 -20.654 -17.722  1.00  0.00     0.295 A 
HETATM   15  C8          0      29.853 -21.258 -17.232  1.00  0.00     0.059 A 
HETATM   16  O3          0      28.509 -19.770 -18.558  1.00  0.00    -0.259 OA
BRANCH  15  17
HETATM   17  C11         0      31.185 -20.859 -17.689  1.00  0.00    -0.019 A 
HETATM   18  C17         0      31.837 -21.605 -18.671  1.00  0.00     0.012 A 
HETATM   19  C20         0      33.107 -21.226 -19.106  1.00  0.00     0.001 A 
HETATM   20  C22         0      33.725 -20.102 -18.558  1.00  0.00     0.000 A 
HETATM   21  C21         0      33.073 -19.357 -17.575  1.00  0.00     0.001 A 
HETATM   22  C18         0      31.803 -19.736 -17.141  1.00  0.00     0.012 A 
ENDBRANCH  15  17
ENDBRANCH   8  11
ENDBRANCH   1   5
TORSDOF 3
ENDMDL
MODEL 4
REMARK VINA RESULT:      -6.8      2.811      5.762
REMARK  3 active torsions:
REMARK  status: ('A' for Active; 'I' for Inactive)
REMARK    1  A    between atoms: S1_1  and  C10_10 
REMARK    2  A    between atoms: C6_6  and  C7_7 
REMARK    3  A    between atoms: C8_8  and  C11_11 
ROOT
HETATM    1  S1          0      35.412 -20.122 -19.667  1.00  0.00     0.171 S 
HETATM    2  O4          0      35.873 -18.878 -19.068  1.00  0.00    -0.223 OA
HETATM    3  O5          0      36.234 -21.320 -19.566  1.00  0.00    -0.223 OA
HETATM    4  C19         0      35.137 -19.828 -21.399  1.00  0.00     0.167 C 
ENDROOT
BRANCH   1   5
HETATM    5  C10         0      33.825 -20.470 -19.029  1.00  0.00     0.058 A 
HETATM    6  C15         0      33.068 -21.509 -19.570  1.00  0.00     0.024 A 
HETATM    7  C12         0      31.800 -21.789 -19.060  1.00  0.00     0.013 A 
HETATM    8  C7          0      31.280 -21.029 -18.006  1.00  0.00    -0.027 A 
HETATM    9  C13         0      32.044 -19.987 -17.468  1.00  0.00     0.013 A 
HETATM   10  C16         0      33.312 -19.709 -17.978  1.00  0.00     0.024 A 
BRANCH   8  11
HETATM   11  C6          0      29.944 -21.325 -17.468  1.00  0.00    -0.007 A 
HETATM   12  C9          0      28.738 -20.700 -18.062  1.00  0.00     0.219 A 
HETATM   13  O2          0      27.661 -21.176 -17.253  1.00  0.00    -0.313 OA
HETATM   14  C14         0      28.146 -22.032 -16.309  1.00  0.00     0.295 A 
HETATM   15  C8          0      29.614 -22.133 -16.453  1.00  0.00     0.059 A 
HETATM   16  O3          0      27.469 -22.623 -15.486  1.00  0.00    -0.259 OA
BRANCH  15  17
HETATM   17  C11         0      30.462 -22.982 -15.615  1.00  0.00    -0.019 A 
HETATM   18  C17         0      31.426 -23.801 -16.202  1.00  0.00     0.012 A 
HETATM   19  C20         0      32.234 -24.611 -15.404  1.00  0.00     0.001 A 
HETATM   20  C22         0      32.078 -24.602 -14.018  1.00  0.00     0.000 A 
HETATM   21  C21         0      31.114 -23.782 -13.431  1.00  0.00     0.001 A 
HETATM   22  C18         0      30.306 -22.973 -14.229  1.00  0.00     0.012 A 
ENDBRANCH  15  17
ENDBRANCH   8  11
ENDBRANCH   1   5
TORSDOF 3
ENDMDL
MODEL 5
REMARK VINA RESULT:      -6.8      1.655      3.966
REMARK  3 active torsions:
REMARK  status: ('A' for Active; 'I' for Inactive)
REMARK    1  A    between atoms: S1_1  and  C10_10 
REMARK    2  A    between atoms: C6_6  and  C7_7 
REMARK    3  A    between atoms: C8_8  and  C11_11 
ROOT
HETATM    1  S1          0      27.573 -20.392 -17.685  1.00  0.00     0.171 S 
HETATM    2  O4          0      27.427 -19.202 -16.860  1.00  0.00    -0.223 OA
HETATM    3  O5          0      27.461 -20.285 -19.133  1.00  0.00    -0.223 OA
HETATM    4  C19         0      26.357 -21.578 -17.157  1.00  0.00     0.167 C 
ENDROOT
BRANCH   1   5
HETATM    5  C10         0      29.103 -21.135 -17.290  1.00  0.00     0.058 A 
HETATM    6  C15         0      29.145 -22.229 -16.426  1.00  0.00     0.024 A 
HETATM    7  C12         0      30.367 -22.823 -16.110  1.00  0.00     0.013 A 
HETATM    8  C7          0      31.555 -22.327 -16.657  1.00  0.00    -0.027 A 
HETATM    9  C13         0      31.507 -21.228 -17.523  1.00  0.00     0.013 A 
HETATM   10  C16         0      30.285 -20.635 -17.838  1.00  0.00     0.024 A 
BRANCH   8  11
HETATM   11  C6          0      32.843 -22.954 -16.326  1.00  0.00    -0.007 A 
HETATM   12  C9          0      32.921 -24.008 -15.286  1.00  0.00     0.219 A 
HETATM   13  O2          0      34.311 -24.326 -15.212  1.00  0.00    -0.313 OA
HETATM   14  C14         0      34.995 -23.590 -16.134  1.00  0.00     0.295 A 
HETATM   15  C8          0      34.049 -22.714 -16.856  1.00  0.00     0.059 A 
HETATM   16  O3          0      36.197 -23.657 -16.332  1.00  0.00    -0.259 OA
BRANCH  15  17
HETATM   17  C11         0      34.436 -21.801 -17.932  1.00  0.00    -0.019 A 
HETATM   18  C17         0      34.749 -22.305 -19.195  1.00  0.00     0.012 A 
HETATM   19  C20         0      35.119 -21.435 -20.221  1.00  0.00     0.001 A 
HETATM   20  C22         0      35.177 -20.062 -19.984  1.00  0.00     0.000 A 
HETATM   21  C21         0      34.864 -19.558 -18.721  1.00  0.00     0.001 A 
HETATM   22  C18         0      34.494 -20.428 -17.695  1.00  0.00     0.012 A 
ENDBRANCH  15  17
ENDBRANCH   8  11
ENDBRANCH   1   5
TORSDOF 3
ENDMDL
MODEL 6
REMARK VINA RESULT:      -6.4      3.752      5.970
REMARK  3 active torsions:
REMARK  status: ('A' for Active; 'I' for Inactive)
REMARK    1  A    between atoms: S1_1  and  C10_10 
REMARK    2  A    between atoms: C6_6  and  C7_7 
REMARK    3  A    between atoms: C8_8  and  C11_11 
ROOT
HETATM    1  S1          0      32.241 -25.298 -12.772  1.00  0.00     0.171 S 
HETATM    2  O4          0      33.090 -24.938 -11.647  1.00  0.00    -0.223 OA
HETATM    3  O5          0      30.797 -25.133 -12.670  1.00  0.00    -0.223 OA
HETATM    4  C19         0      32.539 -27.008 -13.159  1.00  0.00     0.167 C 
ENDROOT
BRANCH   1   5
HETATM    5  C10         0      32.811 -24.430 -14.176  1.00  0.00     0.058 A 
HETATM    6  C15         0      34.098 -24.660 -14.663  1.00  0.00     0.024 A 
HETATM    7  C12         0      34.554 -23.967 -15.784  1.00  0.00     0.013 A 
HETATM    8  C7          0      33.726 -23.039 -16.426  1.00  0.00    -0.027 A 
HETATM    9  C13         0      32.436 -22.813 -15.932  1.00  0.00     0.013 A 
HETATM   10  C16         0      31.980 -23.506 -14.811  1.00  0.00     0.024 A 
BRANCH   8  11
HETATM   11  C6          0      34.206 -22.310 -17.609  1.00  0.00    -0.007 A 
HETATM   12  C9          0      35.458 -22.720 -18.288  1.00  0.00     0.219 A 
HETATM   13  O2          0      35.619 -21.762 -19.336  1.00  0.00    -0.313 OA
HETATM   14  C14         0      34.563 -20.901 -19.329  1.00  0.00     0.295 A 
HETATM   15  C8          0      33.650 -21.259 -18.223  1.00  0.00     0.059 A 
HETATM   16  O3          0      34.400 -19.987 -20.120  1.00  0.00    -0.259 OA
BRANCH  15  17
HETATM   17  C11         0      32.400 -20.555 -17.933  1.00  0.00    -0.019 A 
HETATM   18  C17         0      31.177 -21.145 -18.253  1.00  0.00     0.012 A 
HETATM   19  C20         0      29.985 -20.475 -17.977  1.00  0.00     0.001 A 
HETATM   20  C22         0      30.016 -19.214 -17.383  1.00  0.00     0.000 A 
HETATM   21  C21         0      31.239 -18.623 -17.063  1.00  0.00     0.001 A 
HETATM   22  C18         0      32.431 -19.294 -17.339  1.00  0.00     0.012 A 
ENDBRANCH  15  17
ENDBRANCH   8  11
ENDBRANCH   1   5
TORSDOF 3
ENDMDL
MODEL 7
REMARK VINA RESULT:      -6.0      1.545      3.991
REMARK  3 active torsions:
REMARK  status: ('A' for Active; 'I' for Inactive)
REMARK    1  A    between atoms: S1_1  and  C10_10 
REMARK    2  A    between atoms: C6_6  and  C7_7 
REMARK    3  A    between atoms: C8_8  and  C11_11 
ROOT
HETATM    1  S1          0      26.562 -21.176 -17.093  1.00  0.00     0.171 S 
HETATM    2  O4          0      26.140 -21.700 -18.383  1.00  0.00    -0.223 OA
HETATM    3  O5          0      25.733 -21.400 -15.916  1.00  0.00    -0.223 OA
HETATM    4  C19         0      26.764 -19.417 -17.255  1.00  0.00     0.167 C 
ENDROOT
BRANCH   1   5
HETATM    5  C10         0      28.172 -21.770 -16.772  1.00  0.00     0.058 A 
HETATM    6  C15         0      29.252 -21.296 -17.516  1.00  0.00     0.024 A 
HETATM    7  C12         0      30.538 -21.769 -17.260  1.00  0.00     0.013 A 
HETATM    8  C7          0      30.753 -22.722 -16.258  1.00  0.00    -0.027 A 
HETATM    9  C13         0      29.665 -23.194 -15.515  1.00  0.00     0.013 A 
HETATM   10  C16         0      28.379 -22.720 -15.771  1.00  0.00     0.024 A 
BRANCH   8  11
HETATM   11  C6          0      32.110 -23.220 -15.986  1.00  0.00    -0.007 A 
HETATM   12  C9          0      32.324 -24.344 -15.044  1.00  0.00     0.219 A 
HETATM   13  O2          0      33.744 -24.500 -15.002  1.00  0.00    -0.313 OA
HETATM   14  C14         0      34.324 -23.611 -15.857  1.00  0.00     0.295 A 
HETATM   15  C8          0      33.272 -22.793 -16.497  1.00  0.00     0.059 A 
HETATM   16  O3          0      35.523 -23.517 -16.063  1.00  0.00    -0.259 OA
BRANCH  15  17
HETATM   17  C11         0      33.536 -21.750 -17.488  1.00  0.00    -0.019 A 
HETATM   18  C17         0      33.177 -20.428 -17.222  1.00  0.00     0.012 A 
HETATM   19  C20         0      33.428 -19.433 -18.167  1.00  0.00     0.001 A 
HETATM   20  C22         0      34.035 -19.760 -19.379  1.00  0.00     0.000 A 
HETATM   21  C21         0      34.394 -21.082 -19.645  1.00  0.00     0.001 A 
HETATM   22  C18         0      34.143 -22.077 -18.700  1.00  0.00     0.012 A 
ENDBRANCH  15  17
ENDBRANCH   8  11
ENDBRANCH   1   5
TORSDOF 3
ENDMDL
MODEL 8
REMARK VINA RESULT:      -5.9      4.145      6.680
REMARK  3 active torsions:
REMARK  status: ('A' for Active; 'I' for Inactive)
REMARK    1  A    between atoms: S1_1  and  C10_10 
REMARK    2  A    between atoms: C6_6  and  C7_7 
REMARK    3  A    between atoms: C8_8  and  C11_11 
ROOT
HETATM    1  S1          0      32.967 -25.398 -13.885  1.00  0.00     0.171 S 
HETATM    2  O4          0      32.970 -26.696 -14.543  1.00  0.00    -0.223 OA
HETATM    3  O5          0      33.856 -25.158 -12.756  1.00  0.00    -0.223 OA
HETATM    4  C19         0      31.313 -25.074 -13.318  1.00  0.00     0.167 C 
ENDROOT
BRANCH   1   5
HETATM    5  C10         0      33.256 -24.178 -15.101  1.00  0.00     0.058 A 
HETATM    6  C15         0      32.188 -23.452 -15.628  1.00  0.00     0.024 A 
HETATM    7  C12         0      32.418 -22.477 -16.599  1.00  0.00     0.013 A 
HETATM    8  C7          0      33.718 -22.223 -17.049  1.00  0.00    -0.027 A 
HETATM    9  C13         0      34.785 -22.955 -16.516  1.00  0.00     0.013 A 
HETATM   10  C16         0      34.555 -23.929 -15.545  1.00  0.00     0.024 A 
BRANCH   8  11
HETATM   11  C6          0      33.961 -21.194 -18.071  1.00  0.00    -0.007 A 
HETATM   12  C9          0      33.227 -19.907 -18.031  1.00  0.00     0.219 A 
HETATM   13  O2          0      33.682 -19.207 -19.191  1.00  0.00    -0.313 OA
HETATM   14  C14         0      34.622 -19.957 -19.833  1.00  0.00     0.295 A 
HETATM   15  C8          0      34.807 -21.231 -19.108  1.00  0.00     0.059 A 
HETATM   16  O3          0      35.218 -19.619 -20.842  1.00  0.00    -0.259 OA
BRANCH  15  17
HETATM   17  C11         0      35.757 -22.271 -19.507  1.00  0.00    -0.019 A 
HETATM   18  C17         0      35.546 -23.594 -19.118  1.00  0.00     0.012 A 
HETATM   19  C20         0      36.451 -24.585 -19.498  1.00  0.00     0.001 A 
HETATM   20  C22         0      37.567 -24.253 -20.267  1.00  0.00     0.000 A 
HETATM   21  C21         0      37.777 -22.930 -20.656  1.00  0.00     0.001 A 
HETATM   22  C18         0      36.872 -21.939 -20.276  1.00  0.00     0.012 A 
ENDBRANCH  15  17
ENDBRANCH   8  11
ENDBRANCH   1   5
TORSDOF 3
ENDMDL
MODEL 9
REMARK VINA RESULT:      -5.6     12.292     14.176
REMARK  3 active torsions:
REMARK  status: ('A' for Active; 'I' for Inactive)
REMARK    1  A    between atoms: S1_1  and  C10_10 
REMARK    2  A    between atoms: C6_6  and  C7_7 
REMARK    3  A    between atoms: C8_8  and  C11_11 
ROOT
HETATM    1  S1          0      29.240 -31.717 -25.376  1.00  0.00     0.171 S 
HETATM    2  O4          0      30.631 -31.302 -25.273  1.00  0.00    -0.223 OA
HETATM    3  O5          0      28.624 -32.454 -24.282  1.00  0.00    -0.223 OA
HETATM    4  C19         0      29.074 -32.721 -26.835  1.00  0.00     0.167 C 
ENDROOT
BRANCH   1   5
HETATM    5  C10         0      28.280 -30.298 -25.715  1.00  0.00     0.058 A 
HETATM    6  C15         0      28.811 -29.263 -26.484  1.00  0.00     0.024 A 
HETATM    7  C12         0      28.044 -28.130 -26.755  1.00  0.00     0.013 A 
HETATM    8  C7          0      26.740 -28.025 -26.257  1.00  0.00    -0.027 A 
HETATM    9  C13         0      26.213 -29.067 -25.486  1.00  0.00     0.013 A 
HETATM   10  C16         0      26.981 -30.200 -25.215  1.00  0.00     0.024 A 
BRANCH   8  11
HETATM   11  C6          0      25.931 -26.831 -26.545  1.00  0.00    -0.007 A 
HETATM   12  C9          0      26.584 -25.537 -26.856  1.00  0.00     0.219 A 
HETATM   13  O2          0      25.496 -24.626 -27.019  1.00  0.00    -0.313 OA
HETATM   14  C14         0      24.317 -25.296 -26.877  1.00  0.00     0.295 A 
HETATM   15  C8          0      24.598 -26.717 -26.580  1.00  0.00     0.059 A 
HETATM   16  O3          0      23.210 -24.797 -26.987  1.00  0.00    -0.259 OA
BRANCH  15  17
HETATM   17  C11         0      23.562 -27.732 -26.385  1.00  0.00    -0.019 A 
HETATM   18  C17         0      22.496 -27.484 -25.522  1.00  0.00     0.012 A 
HETATM   19  C20         0      21.509 -28.452 -25.335  1.00  0.00     0.001 A 
HETATM   20  C22         0      21.589 -29.669 -26.012  1.00  0.00     0.000 A 
HETATM   21  C21         0      22.656 -29.917 -26.876  1.00  0.00     0.001 A 
HETATM   22  C18         0      23.643 -28.949 -27.062  1.00  0.00     0.012 A 
ENDBRANCH  15  17
ENDBRANCH   8  11
ENDBRANCH   1   5
TORSDOF 3
ENDMDL
