MODEL 1
REMARK VINA RESULT:      -9.2      0.000      0.000
REMARK  5 active torsions:
REMARK  status: ('A' for Active; 'I' for Inactive)
REMARK    1  A    between atoms: S1_1  and  C17_17 
REMARK    2  A    between atoms: S1_1  and  N9_9 
REMARK    3  A    between atoms: N7_7  and  C11_11 
REMARK    4  A    between atoms: C10_10  and  C12_12 
REMARK    5  A    between atoms: C14_14  and  C25_25 
ROOT
HETATM    1  S1          0      32.786 -25.543 -13.436  1.00  0.00     0.256 S 
HETATM    2  O5          0      32.250 -25.627 -12.084  1.00  0.00    -0.201 OA
HETATM    3  O6          0      33.006 -26.760 -14.205  1.00  0.00    -0.201 OA
ENDROOT
BRANCH   1   4
HETATM    4  C17         0      31.766 -24.475 -14.368  1.00  0.00     0.079 A 
HETATM    5  C21         0      31.922 -24.393 -15.751  1.00  0.00     0.027 A 
HETATM    6  C16         0      31.107 -23.539 -16.495  1.00  0.00     0.033 A 
HETATM    7  C11         0      30.144 -22.778 -15.849  1.00  0.00     0.059 A 
HETATM    8  C15         0      29.979 -22.852 -14.472  1.00  0.00     0.033 A 
HETATM    9  C20         0      30.795 -23.705 -13.727  1.00  0.00     0.027 A 
BRANCH   7  10
HETATM   10  N7          0      29.327 -21.923 -16.593  1.00  0.00    -0.233 N 
HETATM   11  N8          0      27.995 -21.971 -16.427  1.00  0.00    -0.162 NA
HETATM   12  C14         0      27.550 -21.043 -17.277  1.00  0.00     0.163 A 
HETATM   13  C13         0      28.590 -20.407 -17.981  1.00  0.00     0.070 A 
HETATM   14  C10         0      29.738 -21.002 -17.514  1.00  0.00     0.071 A 
BRANCH  12  15
HETATM   15  C25         0      26.104 -20.787 -17.389  1.00  0.00     0.436 C 
HETATM   16  F2          0      25.789 -19.463 -17.302  1.00  0.00    -0.165 F 
HETATM   17  F3          0      25.571 -21.217 -18.569  1.00  0.00    -0.165 F 
HETATM   18  F4          0      25.397 -21.411 -16.404  1.00  0.00    -0.165 F 
ENDBRANCH  12  15
BRANCH  14  19
HETATM   19  C12         0      31.113 -20.758 -17.872  1.00  0.00    -0.007 A 
HETATM   20  C18         0      31.819 -19.721 -17.262  1.00  0.00     0.014 A 
HETATM   21  C23         0      33.150 -19.485 -17.609  1.00  0.00     0.007 A 
HETATM   22  C22         0      33.774 -20.286 -18.565  1.00  0.00    -0.062 A 
HETATM   23  C24         0      33.068 -21.323 -19.176  1.00  0.00     0.007 A 
HETATM   24  C26         0      35.196 -20.034 -18.937  1.00  0.00     0.048 C 
HETATM   25  C19         0      31.738 -21.559 -18.829  1.00  0.00     0.014 A 
ENDBRANCH  14  19
ENDBRANCH   7  10
ENDBRANCH   1   4
BRANCH   1  26
HETATM   26  N9          0      34.242 -24.648 -13.396  1.00  0.00    -0.324 N 
HETATM   27  H40         0      34.344 -23.937 -12.663  1.00  0.00     0.169 HD
HETATM   28  H39         0      34.663 -24.383 -14.295  1.00  0.00     0.169 HD
ENDBRANCH   1  26
TORSDOF 5
ENDMDL
MODEL 2
REMARK VINA RESULT:      -8.9      3.482      5.162
REMARK  5 active torsions:
REMARK  status: ('A' for Active; 'I' for Inactive)
REMARK    1  A    between atoms: S1_1  and  C17_17 
REMARK    2  A    between atoms: S1_1  and  N9_9 
REMARK    3  A    between atoms: N7_7  and  C11_11 
REMARK    4  A    between atoms: C10_10  and  C12_12 
REMARK    5  A    between atoms: C14_14  and  C25_25 
ROOT
HETATM    1  S1          0      34.970 -19.916 -19.307  1.00  0.00     0.256 S 
HETATM    2  O5          0      34.805 -19.329 -20.630  1.00  0.00    -0.201 OA
HETATM    3  O6          0      35.689 -19.183 -18.274  1.00  0.00    -0.201 OA
ENDROOT
BRANCH   1   4
HETATM    4  C17         0      33.391 -20.336 -18.690  1.00  0.00     0.079 A 
HETATM    5  C21         0      32.815 -19.576 -17.673  1.00  0.00     0.027 A 
HETATM    6  C16         0      31.553 -19.911 -17.181  1.00  0.00     0.033 A 
HETATM    7  C11         0      30.881 -21.003 -17.711  1.00  0.00     0.059 A 
HETATM    8  C15         0      31.445 -21.768 -18.723  1.00  0.00     0.033 A 
HETATM    9  C20         0      32.707 -21.432 -19.216  1.00  0.00     0.027 A 
BRANCH   7  10
HETATM   10  N7          0      29.618 -21.340 -17.218  1.00  0.00    -0.233 N 
HETATM   11  N8          0      28.528 -20.748 -17.735  1.00  0.00    -0.162 NA
HETATM   12  C14         0      27.528 -21.297 -17.042  1.00  0.00     0.163 A 
HETATM   13  C13         0      27.976 -22.233 -16.090  1.00  0.00     0.070 A 
HETATM   14  C10         0      29.344 -22.240 -16.228  1.00  0.00     0.071 A 
BRANCH  12  15
HETATM   15  C25         0      26.138 -20.899 -17.322  1.00  0.00     0.436 C 
HETATM   16  F2          0      25.960 -19.547 -17.308  1.00  0.00    -0.165 F 
HETATM   17  F3          0      25.694 -21.318 -18.542  1.00  0.00    -0.165 F 
HETATM   18  F4          0      25.267 -21.406 -16.406  1.00  0.00    -0.165 F 
ENDBRANCH  12  15
BRANCH  14  19
HETATM   19  C12         0      30.338 -23.005 -15.517  1.00  0.00    -0.007 A 
HETATM   20  C18         0      30.356 -22.998 -14.122  1.00  0.00     0.014 A 
HETATM   21  C23         0      31.318 -23.739 -13.433  1.00  0.00     0.007 A 
HETATM   22  C22         0      32.260 -24.484 -14.140  1.00  0.00    -0.062 A 
HETATM   23  C24         0      32.243 -24.491 -15.535  1.00  0.00     0.007 A 
HETATM   24  C26         0      33.290 -25.275 -13.405  1.00  0.00     0.048 C 
HETATM   25  C19         0      31.281 -23.751 -16.223  1.00  0.00     0.014 A 
ENDBRANCH  14  19
ENDBRANCH   7  10
ENDBRANCH   1   4
BRANCH   1  26
HETATM   26  N9          0      35.676 -21.464 -19.474  1.00  0.00    -0.324 N 
HETATM   27  H40         0      36.694 -21.537 -19.361  1.00  0.00     0.169 HD
HETATM   28  H39         0      35.291 -22.088 -20.193  1.00  0.00     0.169 HD
ENDBRANCH   1  26
TORSDOF 5
ENDMDL
MODEL 3
REMARK VINA RESULT:      -8.4      4.831      7.015
REMARK  5 active torsions:
REMARK  status: ('A' for Active; 'I' for Inactive)
REMARK    1  A    between atoms: S1_1  and  C17_17 
REMARK    2  A    between atoms: S1_1  and  N9_9 
REMARK    3  A    between atoms: N7_7  and  C11_11 
REMARK    4  A    between atoms: C10_10  and  C12_12 
REMARK    5  A    between atoms: C14_14  and  C25_25 
ROOT
HETATM    1  S1          0      26.030 -20.970 -17.050  1.00  0.00     0.256 S 
HETATM    2  O5          0      25.520 -21.932 -16.083  1.00  0.00    -0.201 OA
HETATM    3  O6          0      25.754 -19.551 -16.873  1.00  0.00    -0.201 OA
ENDROOT
BRANCH   1   4
HETATM    4  C17         0      27.758 -21.186 -17.185  1.00  0.00     0.079 A 
HETATM    5  C21         0      28.363 -22.318 -16.639  1.00  0.00     0.027 A 
HETATM    6  C16         0      29.743 -22.491 -16.746  1.00  0.00     0.033 A 
HETATM    7  C11         0      30.504 -21.531 -17.399  1.00  0.00     0.059 A 
HETATM    8  C15         0      29.912 -20.401 -17.946  1.00  0.00     0.033 A 
HETATM    9  C20         0      28.531 -20.227 -17.838  1.00  0.00     0.027 A 
BRANCH   7  10
HETATM   10  N7          0      31.885 -21.704 -17.507  1.00  0.00    -0.233 N 
HETATM   11  N8          0      32.530 -21.220 -18.583  1.00  0.00    -0.162 NA
HETATM   12  C14         0      33.800 -21.560 -18.353  1.00  0.00     0.163 A 
HETATM   13  C13         0      33.966 -22.256 -17.141  1.00  0.00     0.070 A 
HETATM   14  C10         0      32.700 -22.335 -16.611  1.00  0.00     0.071 A 
BRANCH  12  15
HETATM   15  C25         0      34.842 -21.197 -19.328  1.00  0.00     0.436 C 
HETATM   16  F2          0      35.927 -22.022 -19.279  1.00  0.00    -0.165 F 
HETATM   17  F3          0      34.407 -21.235 -20.620  1.00  0.00    -0.165 F 
HETATM   18  F4          0      35.315 -19.935 -19.124  1.00  0.00    -0.165 F 
ENDBRANCH  12  15
BRANCH  14  19
HETATM   19  C12         0      32.252 -22.938 -15.380  1.00  0.00    -0.007 A 
HETATM   20  C18         0      32.508 -24.286 -15.130  1.00  0.00     0.014 A 
HETATM   21  C23         0      32.075 -24.870 -13.939  1.00  0.00     0.007 A 
HETATM   22  C22         0      31.387 -24.104 -12.998  1.00  0.00    -0.062 A 
HETATM   23  C24         0      31.130 -22.756 -13.247  1.00  0.00     0.007 A 
HETATM   24  C26         0      30.922 -24.727 -11.724  1.00  0.00     0.048 C 
HETATM   25  C19         0      31.564 -22.172 -14.438  1.00  0.00     0.014 A 
ENDBRANCH  14  19
ENDBRANCH   7  10
ENDBRANCH   1   4
BRANCH   1  26
HETATM   26  N9          0      25.521 -21.437 -18.614  1.00  0.00    -0.324 N 
HETATM   27  H40         0      24.595 -21.870 -18.703  1.00  0.00     0.169 HD
HETATM   28  H39         0      26.228 -21.831 -19.247  1.00  0.00     0.169 HD
ENDBRANCH   1  26
TORSDOF 5
ENDMDL
MODEL 4
REMARK VINA RESULT:      -7.2      3.635      5.391
REMARK  5 active torsions:
REMARK  status: ('A' for Active; 'I' for Inactive)
REMARK    1  A    between atoms: S1_1  and  C17_17 
REMARK    2  A    between atoms: S1_1  and  N9_9 
REMARK    3  A    between atoms: N7_7  and  C11_11 
REMARK    4  A    between atoms: C10_10  and  C12_12 
REMARK    5  A    between atoms: C14_14  and  C25_25 
ROOT
HETATM    1  S1          0      32.213 -25.559 -12.019  1.00  0.00     0.256 S 
HETATM    2  O5          0      31.208 -24.973 -11.143  1.00  0.00    -0.201 OA
HETATM    3  O6          0      32.093 -26.950 -12.430  1.00  0.00    -0.201 OA
ENDROOT
BRANCH   1   4
HETATM    4  C17         0      32.341 -24.567 -13.450  1.00  0.00     0.079 A 
HETATM    5  C21         0      31.777 -23.292 -13.468  1.00  0.00     0.027 A 
HETATM    6  C16         0      31.879 -22.499 -14.611  1.00  0.00     0.033 A 
HETATM    7  C11         0      32.546 -22.989 -15.725  1.00  0.00     0.059 A 
HETATM    8  C15         0      33.111 -24.257 -15.719  1.00  0.00     0.033 A 
HETATM    9  C20         0      33.009 -25.050 -14.575  1.00  0.00     0.027 A 
BRANCH   7  10
HETATM   10  N7          0      32.649 -22.196 -16.870  1.00  0.00    -0.233 N 
HETATM   11  N8          0      33.862 -21.939 -17.389  1.00  0.00    -0.162 NA
HETATM   12  C14         0      33.583 -21.173 -18.446  1.00  0.00     0.163 A 
HETATM   13  C13         0      32.203 -20.943 -18.602  1.00  0.00     0.070 A 
HETATM   14  C10         0      31.619 -21.623 -17.559  1.00  0.00     0.071 A 
BRANCH  12  15
HETATM   15  C25         0      34.676 -20.674 -19.297  1.00  0.00     0.436 C 
HETATM   16  F2          0      34.999 -19.374 -19.040  1.00  0.00    -0.165 F 
HETATM   17  F3          0      35.835 -21.378 -19.152  1.00  0.00    -0.165 F 
HETATM   18  F4          0      34.360 -20.732 -20.621  1.00  0.00    -0.165 F 
ENDBRANCH  12  15
BRANCH  14  19
HETATM   19  C12         0      30.226 -21.749 -17.206  1.00  0.00    -0.007 A 
HETATM   20  C18         0      29.806 -22.798 -16.388  1.00  0.00     0.014 A 
HETATM   21  C23         0      28.459 -22.919 -16.046  1.00  0.00     0.007 A 
HETATM   22  C22         0      27.533 -21.992 -16.522  1.00  0.00    -0.062 A 
HETATM   23  C24         0      27.952 -20.943 -17.341  1.00  0.00     0.007 A 
HETATM   24  C26         0      26.092 -22.121 -16.159  1.00  0.00     0.048 C 
HETATM   25  C19         0      29.299 -20.821 -17.682  1.00  0.00     0.014 A 
ENDBRANCH  14  19
ENDBRANCH   7  10
ENDBRANCH   1   4
BRANCH   1  26
HETATM   26  N9          0      33.756 -25.324 -11.321  1.00  0.00    -0.324 N 
HETATM   27  H40         0      33.794 -25.026 -10.339  1.00  0.00     0.169 HD
HETATM   28  H39         0      34.487 -24.909 -11.911  1.00  0.00     0.169 HD
ENDBRANCH   1  26
TORSDOF 5
ENDMDL
